ITEM: TIMESTEP 
30000
ITEM: NUMBER OF ATOMS
95
ITEM: BOX BOUNDS pp pp pp
0 5.31329
0 5.31329
0 5.31329
ITEM: ATOMS type xu yu zu id mol 
1 7.53937 -3.50125 2.51545 1 1 
1 7.5983 -3.92454 3.28743 2 1 
1 7.54284 -4.05226 4.16003 3 1 
1 6.95036 -4.67218 4.37094 4 1 
1 6.5074 -5.30644 4.60063 5 1 
1 6.12795 -5.67725 5.19707 6 1 
1 6.35539 -6.44412 5.50752 7 1 
1 6.37072 -7.09691 5.90341 8 1 
1 6.8371 -7.69326 6.44559 9 1 
1 7.03837 -8.24359 7.1176 10 1 
1 -6.08761 1.10766 -2.34065 11 2 
1 -6.00214 1.155 -3.22784 12 2 
1 -5.86172 0.917813 -3.9227 13 2 
1 -6.06865 0.877771 -4.66248 14 2 
1 -5.83726 0.73036 -5.5177 15 2 
1 -5.31188 0.943835 -6.22815 16 2 
1 -4.48418 1.28491 -6.04092 17 2 
1 -4.00928 2.03438 -6.03496 18 2 
1 -3.28608 2.41192 -6.10333 19 2 
1 -3.18916 3.34492 -5.93426 20 2 
1 20.0607 7.34699 3.29707 21 3 
1 19.9812 7.9591 3.87695 22 3 
1 19.8823 8.67789 4.47242 23 3 
1 19.6049 9.51081 4.86162 24 3 
1 19.5009 10.0407 5.51115 25 3 
1 18.8728 10.5979 5.80148 26 3 
1 18.2658 11.0391 6.17581 27 3 
1 17.6551 11.3213 6.6754 28 3 
1 16.9066 11.0838 6.73663 29 3 
1 16.1996 10.6252 6.94914 30 3 
1 -14.1226 0.639616 2.3465 31 4 
1 -14.4626 -0.0124144 2.52699 32 4 
1 -14.961 -0.338927 3.09684 33 4 
1 -15.3082 -0.750539 3.80387 34 4 
1 -16.1531 -0.900916 3.94103 35 4 
1 -16.9986 -0.795441 3.85102 36 4 
1 -17.8009 -0.898821 3.56559 37 4 
1 -18.4807 -1.37579 3.44951 38 4 
1 -19.3196 -1.36445 3.40135 39 4 
1 -20.0652 -1.34077 3.01411 40 4 
1 8.57846 18.9226 -4.38986 41 5 
1 7.93092 18.2677 -4.52741 42 5 
1 7.3374 17.6844 -4.71999 43 5 
1 6.6369 17.0773 -4.79963 44 5 
1 6.10949 16.4908 -4.97861 45 5 
1 5.65716 15.8712 -4.62035 46 5 
1 5.61113 15.1225 -4.24431 47 5 
1 5.57854 14.5726 -3.59965 48 5 
1 5.75672 13.8153 -3.39113 49 5 
1 6.07338 13.1758 -2.90174 50 5 
2 0.570036 0.241126 0.513814 51 0 
2 1.0599 0.844169 0.424172 52 0 
2 4.67363 0.804065 0.2232 53 0 
2 1.67386 1.44099 0.553481 54 0 
2 2.02058 0.553639 1.11231 55 0 
2 2.32087 2.03617 0.689593 56 0 
2 0.61322 0.227951 1.5296 57 0 
2 1.34097 0.575998 1.39272 58 0 
2 4.6614 0.897792 1.0207 59 0 
2 1.64729 0.313601 2.43674 60 0 
2 4.69466 1.03641 1.73802 61 0 
2 2.25554 1.6004 2.90144 62 0 
2 4.58171 1.13133 2.52905 63 0 
2 2.25728 1.32489 3.72373 64 0 
2 4.0811 2.33975 3.58701 65 0 
2 3.99185 3.0052 4.17468 66 0 
2 1.00438 -0.17855 4.89885 67 0 
2 1.41558 0.323984 4.48578 68 0 
2 0.415265 1.11437 4.49205 69 0 
2 1.06656 1.65965 4.58865 70 0 
2 1.9333 0.951072 4.26548 71 0 
2 1.66561 2.22315 4.55744 72 0 
2 2.07567 2.87842 4.60779 73 0 
2 5.05202 0.837098 4.75366 74 0 
2 1.29062 3.2315 0.861205 75 0 
2 1.04976 3.85607 0.392174 76 0 
2 2.62945 5.5052 0.675357 77 0 
2 3.24698 5.00601 0.343025 78 0 
2 1.62444 2.65816 1.4683 79 0 
2 2.9414 2.65524 0.854657 80 0 
2 0.281542 4.22095 1.39132 81 0 
2 0.320854 4.87027 0.880965 82 0 
2 0.601757 2.86896 2.16686 83 0 
2 0.354335 3.56737 1.8179 84 0 
2 1.22808 5.13762 2.81191 85 0 
2 0.805251 4.76856 3.45035 86 0 
2 1.56078 3.96068 3.20773 87 0 
2 2.35301 3.94317 3.42543 88 0 
2 0.209198 4.48757 3.87245 89 0 
2 3.1124 4.17599 3.50755 90 0 
2 3.85345 4.46616 3.7083 91 0 
2 4.67731 4.46511 3.89602 92 0 
2 3.80369 3.78105 4.66702 93 0 
2 3.61299 4.46248 5.18638 94 0 
2 0.928381 4.5659 5.3523 95 0 
ITEM: TIMESTEP
30001
ITEM: NUMBER OF ATOMS
95
ITEM: BOX BOUNDS pp pp pp
0 5.31329
0 5.31329
0 5.31329
ITEM: ATOMS type xu yu zu id mol 
1 7.54707 -3.50445 2.52099 1 1 
1 7.59324 -3.89975 3.29365 2 1 
1 7.52856 -4.04461 4.17445 3 1 
1 6.96737 -4.67078 4.36526 4 1 
1 6.52341 -5.30924 4.61544 5 1 
1 6.11592 -5.68263 5.17896 6 1 
1 6.35013 -6.45733 5.49321 7 1 
1 6.37103 -7.08932 5.89768 8 1 
1 6.82911 -7.69097 6.43383 9 1 
1 7.03323 -8.22833 7.11868 10 1 
1 -6.08253 1.10399 -2.35521 11 2 
1 -6.02225 1.15544 -3.21448 12 2 
1 -5.85546 0.90469 -3.92776 13 2 
1 -6.06524 0.878802 -4.66401 14 2 
1 -5.80524 0.728902 -5.53149 15 2 
1 -5.29858 0.94082 -6.2237 16 2 
1 -4.4769 1.29545 -6.056 17 2 
1 -4.00544 2.02038 -6.04286 18 2 
1 -3.29432 2.40181 -6.10249 19 2 
1 -3.16439 3.34221 -5.93653 20 2 
1 20.0526 7.35426 3.29462 21 3 
1 19.9978 7.95728 3.88681 22 3 
1 19.9004 8.67727 4.48056 23 3 
1 19.6179 9.50515 4.86736 24 3 
1 19.4901 10.032 5.51712 25 3 
1 18.8791 10.5946 5.80054 26 3 
1 18.2735 11.0258 6.16794 27 3 
1 17.6446 11.3357 6.69314 28 3 
1 16.9182 11.0759 6.74077 29 3 
1 16.1921 10.6045 6.95107 30 3 
1 -14.1371 0.648763 2.34429 31 4 
1 -14.4685 -0.0039253 2.53533 32 4 
1 -14.9526 -0.339809 3.0804 33 4 
1 -15.3185 -0.772147 3.81365 34 4 
1 -16.157 -0.880501 3.92615 35 4 
1 -16.9989 -0.781773 3.86052 36 4 
1 -17.8107 -0.896818 3.55884 37 4 
1 -18.48 -1.37057 3.44682 38 4 
1 -19.3274 -1.39326 3.40085 39 4 
1 -20.0643 -1.33101 3.01531 40 4 
1 8.58249 18.9302 -4.39161 41 5 
1 7.92685 18.264 -4.52941 42 5 
1 7.3173 17.6773 -4.71708 43 5 
1 6.63594 17.0937 -4.77684 44 5 
1 6.10349 16.4836 -4.9597 45 5 
1 5.66793 15.8863 -4.61607 46 5 
1 5.59395 15.1248 -4.23853 47 5 
1 5.57926 14.5685 -3.59866 48 5 
1 5.74839 13.8165 -3.40677 49 5 
1 6.06086 13.1828 -2.91366 50 5 
2 0.570036 0.241126 0.513814 51 0 
2 1.0599 0.844169 0.424172 52 0 
2 4.67363 0.804065 0.2232 53 0 
2 1.67386 1.44099 0.553481 54 0 
2 2.02058 0.553639 1.11231 55 0 
2 2.32087 2.03617 0.689593 56 0 
2 0.61322 0.227951 1.5296 57 0 
2 1.34097 0.575998 1.39272 58 0 
2 4.6614 0.897792 1.0207 59 0 
2 1.64729 0.313601 2.43674 60 0 
2 4.69466 1.03641 1.73802 61 0 
2 2.25554 1.6004 2.90144 62 0 
2 4.58171 1.13133 2.52905 63 0 
2 2.25728 1.32489 3.72373 64 0 
2 4.0811 2.33975 3.58701 65 0 
2 3.99185 3.0052 4.17468 66 0 
2 1.00438 -0.17855 4.89885 67 0 
2 1.41558 0.323984 4.48578 68 0 
2 0.415265 1.11437 4.49205 69 0 
2 1.06656 1.65965 4.58865 70 0 
2 1.9333 0.951072 4.26548 71 0 
2 1.66561 2.22315 4.55744 72 0 
2 2.07567 2.87842 4.60779 73 0 
2 5.05202 0.837098 4.75366 74 0 
2 1.29062 3.2315 0.861205 75 0 
2 1.04976 3.85607 0.392174 76 0 
2 2.62945 5.5052 0.675357 77 0 
2 3.24698 5.00601 0.343025 78 0 
2 1.62444 2.65816 1.4683 79 0 
2 2.9414 2.65524 0.854657 80 0 
2 0.281542 4.22095 1.39132 81 0 
2 0.320854 4.87027 0.880965 82 0 
2 0.601757 2.86896 2.16686 83 0 
2 0.354335 3.56737 1.8179 84 0 
2 1.22808 5.13762 2.81191 85 0 
2 0.805251 4.76856 3.45035 86 0 
2 1.56078 3.96068 3.20773 87 0 
2 2.35301 3.94317 3.42543 88 0 
2 0.209198 4.48757 3.87245 89 0 
2 3.1124 4.17599 3.50755 90 0 
2 3.85345 4.46616 3.7083 91 0 
2 4.67731 4.46511 3.89602 92 0 
2 3.80369 3.78105 4.66702 93 0 
2 3.61299 4.46248 5.18638 94 0 
2 0.928381 4.5659 5.3523 95 0 
ITEM: TIMESTEP
30002
ITEM: NUMBER OF ATOMS
95
ITEM: BOX BOUNDS pp pp pp
0 5.31329
0 5.31329
0 5.31329
ITEM: ATOMS type xu yu zu id mol 
1 7.55489 -3.50819 2.52721 1 1 
1 7.58819 -3.87418 3.30129 2 1 
1 7.51363 -4.0376 4.18634 3 1 
1 6.98582 -4.66794 4.35935 4 1 
1 6.53965 -5.31112 4.62921 5 1 
1 6.1035 -5.69071 5.16243 6 1 
1 6.34353 -6.46605 5.47662 7 1 
1 6.374 -7.08761 5.8962 8 1 
1 6.81935 -7.68772 6.42179 9 1 
1 7.0278 -8.21191 7.11815 10 1 
1 -6.07751 1.10056 -2.37036 11 2 
1 -6.04269 1.15635 -3.19718 12 2 
1 -5.84843 0.891246 -3.93239 13 2 
1 -6.06127 0.878663 -4.67216 14 2 
1 -5.77353 0.728622 -5.54382 15 2 
1 -5.28343 0.938132 -6.21685 16 2 
1 -4.47223 1.30614 -6.07218 17 2 
1 -4.00271 2.00392 -6.05078 18 2 
1 -3.30105 2.3983 -6.10062 19 2 
1 -3.13987 3.33446 -5.93977 20 2 
1 20.0445 7.36139 3.29211 21 3 
1 20.0141 7.9586 3.89933 22 3 
1 19.9173 8.67791 4.48771 23 3 
1 19.6329 9.49484 4.8717 24 3 
1 19.4778 10.0244 5.52293 25 3 
1 18.8871 10.59 5.79911 26 3 
1 18.28 11.0136 6.16146 27 3 
1 17.6378 11.3503 6.70904 28 3 
1 16.925 11.0659 6.74613 29 3 
1 16.1859 10.585 6.95259 30 3 
1 -14.1496 0.661357 2.3409 31 4 
1 -14.4753 0.00237636 2.54371 32 4 
1 -14.9461 -0.343647 3.06825 33 4 
1 -15.3282 -0.791997 3.82022 34 4 
1 -16.1606 -0.859868 3.91159 35 4 
1 -17.0001 -0.768392 3.86938 36 4 
1 -17.8185 -0.894715 3.55292 37 4 
1 -18.4805 -1.36516 3.44418 38 4 
1 -19.3344 -1.42236 3.40017 39 4 
1 -20.0641 -1.32124 3.01639 40 4 
1 8.58356 18.9348 -4.39395 41 5 
1 7.92525 18.2628 -4.53111 42 5 
1 7.29592 17.6694 -4.71385 43 5 
1 6.6374 17.1122 -4.7543 44 5 
1 6.09755 16.4772 -4.94088 45 5 
1 5.67816 15.8997 -4.61157 46 5 
1 5.57646 15.1276 -4.2324 47 5 
1 5.57956 14.5661 -3.59915 48 5 
1 5.74084 13.8152 -3.42077 49 5 
1 6.04806 13.1901 -2.92605 50 5 
2 0.570036 0.241126 0.513814 51 0 
2 1.0599 0.844169 0.424172 52 0 
2 4.67363 0.804065 0.2232 53 0 
2 1.67386 1.44099 0.553481 54 0 
2 2.02058 0.553639 1.11231 55 0 
2 2.32087 2.03617 0.689593 56 0 
2 0.61322 0.227951 1.5296 57 0 
2 1.34097 0.575998 1.39272 58 0 
2 4.6614 0.897792 1.0207 59 0 
2 1.64729 0.313601 2.43674 60 0 
2 4.69466 1.03641 1.73802 61 0 
2 2.25554 1.6004 2.90144 62 0 
2 4.58171 1.13133 2.52905 63 0 
2 2.25728 1.32489 3.72373 64 0 
2 4.0811 2.33975 3.58701 65 0 
2 3.99185 3.0052 4.17468 66 0 
2 1.00438 -0.17855 4.89885 67 0 
2 1.41558 0.323984 4.48578 68 0 
2 0.415265 1.11437 4.49205 69 0 
2 1.06656 1.65965 4.58865 70 0 
2 1.9333 0.951072 4.26548 71 0 
2 1.66561 2.22315 4.55744 72 0 
2 2.07567 2.87842 4.60779 73 0 
2 5.05202 0.837098 4.75366 74 0 
2 1.29062 3.2315 0.861205 75 0 
2 1.04976 3.85607 0.392174 76 0 
2 2.62945 5.5052 0.675357 77 0 
2 3.24698 5.00601 0.343025 78 0 
2 1.62444 2.65816 1.4683 79 0 
2 2.9414 2.65524 0.854657 80 0 
2 0.281542 4.22095 1.39132 81 0 
2 0.320854 4.87027 0.880965 82 0 
2 0.601757 2.86896 2.16686 83 0 
2 0.354335 3.56737 1.8179 84 0 
2 1.22808 5.13762 2.81191 85 0 
2 0.805251 4.76856 3.45035 86 0 
2 1.56078 3.96068 3.20773 87 0 
2 2.35301 3.94317 3.42543 88 0 
2 0.209198 4.48757 3.87245 89 0 
2 3.1124 4.17599 3.50755 90 0 
2 3.85345 4.46616 3.7083 91 0 
2 4.67731 4.46511 3.89602 92 0 
2 3.80369 3.78105 4.66702 93 0 
2 3.61299 4.46248 5.18638 94 0 
2 0.928381 4.5659 5.3523 95 0 
ITEM: TIMESTEP
30003
ITEM: NUMBER OF ATOMS
95
ITEM: BOX BOUNDS pp pp pp
0 5.31329
0 5.31329
0 5.31329
ITEM: ATOMS type xu yu zu id mol 
1 7.5628 -3.51221 2.53364 1 1 
1 7.58312 -3.84824 3.31118 2 1 
1 7.49875 -4.03037 4.19507 3 1 
1 7.00479 -4.66475 4.35364 4 1 
1 6.55653 -5.31163 4.64171 5 1 
1 6.0906 -5.7016 5.14757 6 1 
1 6.33551 -6.47023 5.45765 7 1 
1 6.37935 -7.09139 5.89865 8 1 
1 6.80818 -7.68387 6.40996 9 1 
1 7.02203 -8.19432 7.11592 10 1 
1 -6.07263 1.09731 -2.38459 11 2 
1 -6.06307 1.15736 -3.17871 12 2 
1 -5.84097 0.877872 -3.93546 13 2 
1 -6.0564 0.877312 -4.68725 14 2 
1 -5.74308 0.729335 -5.55333 15 2 
1 -5.26607 0.935967 -6.20861 16 2 
1 -4.47042 1.31617 -6.08933 17 2 
1 -4.00064 1.98582 -6.05872 18 2 
1 -3.30597 2.40142 -6.09777 19 2 
1 -3.11579 3.32168 -5.94395 20 2 
1 20.0364 7.36856 3.28972 21 3 
1 20.03 7.96278 3.91419 22 3 
1 19.9331 8.67952 4.49385 23 3 
1 19.6498 9.48048 4.87507 24 3 
1 19.4646 10.0175 5.52812 25 3 
1 18.8965 10.5845 5.79732 26 3 
1 18.2841 11.0032 6.15735 27 3 
1 17.6361 11.3649 6.7222 28 3 
1 16.9264 11.0533 6.75283 29 3 
1 16.1816 10.5673 6.95421 30 3 
1 -14.1602 0.677172 2.33643 31 4 
1 -14.4823 0.00708603 2.55158 32 4 
1 -14.9426 -0.35143 3.06188 33 4 
1 -15.3361 -0.809363 3.82246 34 4 
1 -16.1645 -0.839168 3.89752 35 4 
1 -17.003 -0.755348 3.8773 36 4 
1 -17.8234 -0.892181 3.54813 37 4 
1 -18.4827 -1.35989 3.44152 38 4 
1 -19.3402 -1.45166 3.39939 39 4 
1 -20.0649 -1.31147 3.01729 40 4 
1 8.58151 18.9362 -4.3969 41 5 
1 7.92571 18.2639 -4.53264 42 5 
1 7.27504 17.6621 -4.71002 43 5 
1 6.6394 17.1309 -4.7324 44 5 
1 6.09305 16.4732 -4.92246 45 5 
1 5.68712 15.91 -4.60646 46 5 
1 5.55881 15.1313 -4.2265 47 5 
1 5.57932 14.5657 -3.60111 48 5 
1 5.734 13.8114 -3.43328 49 5 
1 6.03512 13.1973 -2.93874 50 5 
2 0.570036 0.241126 0.513814 51 0 
2 1.0599 0.844169 0.424172 52 0 
2 4.67363 0.804065 0.2232 53 0 
2 1.67386 1.44099 0.553481 54 0 
2 2.02058 0.553639 1.11231 55 0 
2 2.32087 2.03617 0.689593 56 0 
2 0.61322 0.227951 1.5296 57 0 
2 1.34097 0.575998 1.39272 58 0 
2 4.6614 0.897792 1.0207 59 0 
2 1.64729 0.313601 2.43674 60 0 
2 4.69466 1.03641 1.73802 61 0 
2 2.25554 1.6004 2.90144 62 0 
2 4.58171 1.13133 2.52905 63 0 
2 2.25728 1.32489 3.72373 64 0 
2 4.0811 2.33975 3.58701 65 0 
2 3.99185 3.0052 4.17468 66 0 
2 1.00438 -0.17855 4.89885 67 0 
2 1.41558 0.323984 4.48578 68 0 
2 0.415265 1.11437 4.49205 69 0 
2 1.06656 1.65965 4.58865 70 0 
2 1.9333 0.951072 4.26548 71 0 
2 1.66561 2.22315 4.55744 72 0 
2 2.07567 2.87842 4.60779 73 0 
2 5.05202 0.837098 4.75366 74 0 
2 1.29062 3.2315 0.861205 75 0 
2 1.04976 3.85607 0.392174 76 0 
2 2.62945 5.5052 0.675357 77 0 
2 3.24698 5.00601 0.343025 78 0 
2 1.62444 2.65816 1.4683 79 0 
2 2.9414 2.65524 0.854657 80 0 
2 0.281542 4.22095 1.39132 81 0 
2 0.320854 4.87027 0.880965 82 0 
2 0.601757 2.86896 2.16686 83 0 
2 0.354335 3.56737 1.8179 84 0 
2 1.22808 5.13762 2.81191 85 0 
2 0.805251 4.76856 3.45035 86 0 
2 1.56078 3.96068 3.20773 87 0 
2 2.35301 3.94317 3.42543 88 0 
2 0.209198 4.48757 3.87245 89 0 
2 3.1124 4.17599 3.50755 90 0 
2 3.85345 4.46616 3.7083 91 0 
2 4.67731 4.46511 3.89602 92 0 
2 3.80369 3.78105 4.66702 93 0 
2 3.61299 4.46248 5.18638 94 0 
2 0.928381 4.5659 5.3523 95 0 
ITEM: TIMESTEP
30004
ITEM: NUMBER OF ATOMS
95
ITEM: BOX BOUNDS pp pp pp
0 5.31329
0 5.31329
0 5.31329
ITEM: ATOMS type xu yu zu id mol 
1 7.57078 -3.51628 2.53992 1 1 
1 7.578 -3.82224 3.32384 2 1 
1 7.48455 -4.02213 4.2003 3 1 
1 7.02346 -4.66227 4.34855 4 1 
1 6.57422 -5.31051 4.65293 5 1 
1 6.07722 -5.715 5.13411 6 1 
1 6.32609 -6.47063 5.43667 7 1 
1 6.38661 -7.09956 5.90419 8 1 
1 6.79612 -7.67996 6.39896 9 1 
1 7.01589 -8.17558 7.11192 10 1 
1 -6.06795 1.09412 -2.39641 11 2 
1 -6.08301 1.15813 -3.16185 12 2 
1 -5.83359 0.864986 -3.9362 13 2 
1 -6.05031 0.874778 -4.70885 14 2 
1 -5.7146 0.730809 -5.55919 15 2 
1 -5.24643 0.934405 -6.19991 16 2 
1 -4.47151 1.32486 -6.10732 17 2 
1 -3.99848 1.96704 -6.06668 18 2 
1 -3.30919 2.41057 -6.094 19 2 
1 -3.09223 3.30439 -5.94896 20 2 
1 20.0283 7.37606 3.28776 21 3 
1 20.0456 7.96929 3.93081 22 3 
1 19.9479 8.68173 4.49895 23 3 
1 19.6681 9.46303 4.87813 24 3 
1 19.4511 10.0102 5.53204 25 3 
1 18.9067 10.5784 5.79541 26 3 
1 18.2852 10.9952 6.15625 27 3 
1 17.6397 11.3789 6.7315 28 3 
1 16.9224 11.0382 6.76088 29 3 
1 16.1795 10.5516 6.95572 30 3 
1 -14.1691 0.695744 2.33149 31 4 
1 -14.4891 0.0108865 2.55854 32 4 
1 -14.9426 -0.363762 3.06212 33 4 
1 -15.3416 -0.823852 3.81978 34 4 
1 -16.1687 -0.818482 3.88402 35 4 
1 -17.0079 -0.742681 3.88407 36 4 
1 -17.8251 -0.889012 3.54468 37 4 
1 -18.4872 -1.35499 3.43881 38 4 
1 -19.3445 -1.48103 3.39853 39 4 
1 -20.0665 -1.30171 3.018 40 4 
1 8.57639 18.9344 -4.40047 41 5 
1 7.9275 18.2665 -4.53415 42 5 
1 7.25652 17.6572 -4.70534 43 5 
1 6.64014 17.1481 -4.71142 44 5 
1 6.09116 16.4732 -4.90465 45 5 
1 5.6941 15.916 -4.60005 46 5 
1 5.54118 15.1363 -4.22103 47 5 
1 5.57852 14.5672 -3.60444 48 5 
1 5.72771 13.8055 -3.44456 49 5 
1 6.02219 13.2041 -2.95146 50 5 
2 0.570036 0.241126 0.513814 51 0 
2 1.0599 0.844169 0.424172 52 0 
2 4.67363 0.804065 0.2232 53 0 
2 1.67386 1.44099 0.553481 54 0 
2 2.02058 0.553639 1.11231 55 0 
2 2.32087 2.03617 0.689593 56 0 
2 0.61322 0.227951 1.5296 57 0 
2 1.34097 0.575998 1.39272 58 0 
2 4.6614 0.897792 1.0207 59 0 
2 1.64729 0.313601 2.43674 60 0 
2 4.69466 1.03641 1.73802 61 0 
2 2.25554 1.6004 2.90144 62 0 
2 4.58171 1.13133 2.52905 63 0 
2 2.25728 1.32489 3.72373 64 0 
2 4.0811 2.33975 3.58701 65 0 
2 3.99185 3.0052 4.17468 66 0 
2 1.00438 -0.17855 4.89885 67 0 
2 1.41558 0.323984 4.48578 68 0 
2 0.415265 1.11437 4.49205 69 0 
2 1.06656 1.65965 4.58865 70 0 
2 1.9333 0.951072 4.26548 71 0 
2 1.66561 2.22315 4.55744 72 0 
2 2.07567 2.87842 4.60779 73 0 
2 5.05202 0.837098 4.75366 74 0 
2 1.29062 3.2315 0.861205 75 0 
2 1.04976 3.85607 0.392174 76 0 
2 2.62945 5.5052 0.675357 77 0 
2 3.24698 5.00601 0.343025 78 0 
2 1.62444 2.65816 1.4683 79 0 
2 2.9414 2.65524 0.854657 80 0 
2 0.281542 4.22095 1.39132 81 0 
2 0.320854 4.87027 0.880965 82 0 
2 0.601757 2.86896 2.16686 83 0 
2 0.354335 3.56737 1.8179 84 0 
2 1.22808 5.13762 2.81191 85 0 
2 0.805251 4.76856 3.45035 86 0 
2 1.56078 3.96068 3.20773 87 0 
2 2.35301 3.94317 3.42543 88 0 
2 0.209198 4.48757 3.87245 89 0 
2 3.1124 4.17599 3.50755 90 0 
2 3.85345 4.46616 3.7083 91 0 
2 4.67731 4.46511 3.89602 92 0 
2 3.80369 3.78105 4.66702 93 0 
2 3.61299 4.46248 5.18638 94 0 
2 0.928381 4.5659 5.3523 95 0 
ITEM: TIMESTEP
30005
ITEM: NUMBER OF ATOMS
95
ITEM: BOX BOUNDS pp pp pp
0 5.31329
0 5.31329
0 5.31329
ITEM: ATOMS type xu yu zu id mol 
1 7.57883 -3.52031 2.54582 1 1 
1 7.57279 -3.79635 3.33938 2 1 
1 7.47147 -4.01219 4.20199 3 1 
1 7.04124 -4.66134 4.34439 4 1 
1 6.59268 -5.30775 4.66306 5 1 
1 6.06344 -5.73012 5.12149 6 1 
1 6.31547 -6.46866 5.41446 7 1 
1 6.39515 -7.11051 5.91155 8 1 
1 6.78377 -7.6767 6.38948 9 1 
1 7.00938 -8.15578 7.10619 10 1 
1 -6.06339 1.09089 -2.40454 11 2 
1 -6.1022 1.15834 -3.14898 12 2 
1 -5.82693 0.852985 -3.93438 13 2 
1 -6.04272 0.871138 -4.73572 14 2 
1 -5.68857 0.732788 -5.56114 15 2 
1 -5.22476 0.933367 -6.19148 16 2 
1 -4.47535 1.33178 -6.12604 17 2 
1 -3.99534 1.94855 -6.07465 18 2 
1 -3.31112 2.42458 -6.08947 19 2 
1 -3.06915 3.2835 -5.95462 20 2 
1 20.0204 7.38425 3.2867 21 3 
1 20.0609 7.97742 3.94845 22 3 
1 19.9621 8.68415 4.50301 23 3 
1 19.6874 9.44361 4.88166 24 3 
1 19.4381 10.0019 5.53399 25 3 
1 18.917 10.5723 5.79372 26 3 
1 18.2831 10.9896 6.15842 27 3 
1 17.6483 11.3917 6.73663 28 3 
1 16.914 11.0208 6.77017 29 3 
1 16.1795 10.5378 6.95704 30 3 
1 -14.1768 0.716496 2.32626 31 4 
1 -14.4953 0.0144202 2.56442 32 4 
1 -14.9462 -0.380554 3.069 33 4 
1 -15.3444 -0.835413 3.81214 34 4 
1 -16.1735 -0.797849 3.87117 35 4 
1 -17.0151 -0.730407 3.88956 36 4 
1 -17.8234 -0.885174 3.54264 37 4 
1 -18.4939 -1.35057 3.43603 38 4 
1 -19.3473 -1.51032 3.39751 39 4 
1 -20.0688 -1.2922 3.01862 40 4 
1 8.56847 18.9297 -4.4046 41 5 
1 7.92973 18.2699 -4.53584 42 5 
1 7.24201 17.6559 -4.69968 43 5 
1 6.63821 17.1623 -4.69152 44 5 
1 6.09262 16.4782 -4.8875 45 5 
1 5.69862 15.917 -4.59184 46 5 
1 5.52369 15.1429 -4.21626 47 5 
1 5.57717 14.5703 -3.60895 48 5 
1 5.72173 13.798 -3.455 49 5 
1 6.00948 13.2102 -2.96389 50 5 
2 0.570036 0.241126 0.513814 51 0 
2 1.0599 0.844169 0.424172 52 0 
2 4.67363 0.804065 0.2232 53 0 
2 1.67386 1.44099 0.553481 54 0 
2 2.02058 0.553639 1.11231 55 0 
2 2.32087 2.03617 0.689593 56 0 
2 0.61322 0.227951 1.5296 57 0 
2 1.34097 0.575998 1.39272 58 0 
2 4.6614 0.897792 1.0207 59 0 
2 1.64729 0.313601 2.43674 60 0 
2 4.69466 1.03641 1.73802 61 0 
2 2.25554 1.6004 2.90144 62 0 
2 4.58171 1.13133 2.52905 63 0 
2 2.25728 1.32489 3.72373 64 0 
2 4.0811 2.33975 3.58701 65 0 
2 3.99185 3.0052 4.17468 66 0 
2 1.00438 -0.17855 4.89885 67 0 
2 1.41558 0.323984 4.48578 68 0 
2 0.415265 1.11437 4.49205 69 0 
2 1.06656 1.65965 4.58865 70 0 
2 1.9333 0.951072 4.26548 71 0 
2 1.66561 2.22315 4.55744 72 0 
2 2.07567 2.87842 4.60779 73 0 
2 5.05202 0.837098 4.75366 74 0 
2 1.29062 3.2315 0.861205 75 0 
2 1.04976 3.85607 0.392174 76 0 
2 2.62945 5.5052 0.675357 77 0 
2 3.24698 5.00601 0.343025 78 0 
2 1.62444 2.65816 1.4683 79 0 
2 2.9414 2.65524 0.854657 80 0 
2 0.281542 4.22095 1.39132 81 0 
2 0.320854 4.87027 0.880965 82 0 
2 0.601757 2.86896 2.16686 83 0 
2 0.354335 3.56737 1.8179 84 0 
2 1.22808 5.13762 2.81191 85 0 
2 0.805251 4.76856 3.45035 86 0 
2 1.56078 3.96068 3.20773 87 0 
2 2.35301 3.94317 3.42543 88 0 
2 0.209198 4.48757 3.87245 89 0 
2 3.1124 4.17599 3.50755 90 0 
2 3.85345 4.46616 3.7083 91 0 
2 4.67731 4.46511 3.89602 92 0 
2 3.80369 3.78105 4.66702 93 0 
2 3.61299 4.46248 5.18638 94 0 
2 0.928381 4.5659 5.3523 95 0 
ITEM: TIMESTEP
30006
ITEM: NUMBER OF ATOMS
95
ITEM: BOX BOUNDS pp pp pp
0 5.31329
0 5.31329
0 5.31329
ITEM: ATOMS type xu yu zu id mol 
1 7.58695 -3.52424 2.55129 1 1 
1 7.5675 -3.77056 3.35744 2 1 
1 7.45975 -4.00016 4.20044 3 1 
1 7.05781 -4.66251 4.34135 4 1 
1 6.61155 -5.30364 4.67245 5 1 
1 6.04949 -5.74587 5.10897 6 1 
1 6.30398 -6.46612 5.39209 7 1 
1 6.40423 -7.12229 5.91918 8 1 
1 6.77172 -7.67478 6.38214 9 1 
1 7.00252 -8.13507 7.09886 10 1 
1 -6.05882 1.08753 -2.40809 11 2 
1 -6.12044 1.15773 -3.14183 12 2 
1 -5.82166 0.842216 -3.93036 13 2 
1 -6.03349 0.866504 -4.76594 14 2 
1 -5.66508 0.735017 -5.55953 15 2 
1 -5.2016 0.932595 -6.18385 16 2 
1 -4.4815 1.33679 -6.14543 17 2 
1 -3.99028 1.93125 -6.08261 18 2 
1 -3.31248 2.4418 -6.08438 19 2 
1 -3.04634 3.26026 -5.96071 20 2 
1 20.0126 7.39357 3.28702 21 3 
1 20.0757 7.98632 3.9662 22 3 
1 19.9758 8.68641 4.50609 23 3 
1 19.7071 9.42345 4.88645 24 3 
1 19.4263 9.9915 5.53333 25 3 
1 18.9266 10.567 5.79269 26 3 
1 18.2782 10.9865 6.16369 27 3 
1 17.6606 11.4026 6.73791 28 3 
1 16.9026 11.002 6.78052 29 3 
1 16.1813 10.5257 6.95812 30 3 
1 -14.1835 0.738778 2.32066 31 4 
1 -14.5009 0.018194 2.56925 32 4 
1 -14.953 -0.40124 3.08173 33 4 
1 -15.345 -0.844321 3.80004 34 4 
1 -16.1788 -0.777296 3.859 35 4 
1 -17.0241 -0.718504 3.89377 36 4 
1 -17.8188 -0.880814 3.54196 37 4 
1 -18.5028 -1.34659 3.43323 38 4 
1 -19.3488 -1.5393 3.39617 39 4 
1 -20.0715 -1.28317 3.01928 40 4 
1 8.55817 18.9225 -4.4092 41 5 
1 7.93149 18.2733 -4.53784 42 5 
1 7.23268 17.6593 -4.69299 43 5 
1 6.63278 17.1729 -4.67275 44 5 
1 6.0976 16.4885 -4.87095 45 5 
1 5.70058 15.9131 -4.58173 46 5 
1 5.5064 15.1511 -4.21224 47 5 
1 5.5753 14.5746 -3.61445 48 5 
1 5.7158 13.7898 -3.46505 49 5 
1 5.99718 13.215 -2.97567 50 5 
2 0.570036 0.241126 0.513814 51 0 
2 1.0599 0.844169 0.424172 52 0 
2 4.67363 0.804065 0.2232 53 0 
2 1.67386 1.44099 0.553481 54 0 
2 2.02058 0.553639 1.11231 55 0 
2 2.32087 2.03617 0.689593 56 0 
2 0.61322 0.227951 1.5296 57 0 
2 1.34097 0.575998 1.39272 58 0 
2 4.6614 0.897792 1.0207 59 0 
2 1.64729 0.313601 2.43674 60 0 
2 4.69466 1.03641 1.73802 61 0 
2 2.25554 1.6004 2.90144 62 0 
2 4.58171 1.13133 2.52905 63 0 
2 2.25728 1.32489 3.72373 64 0 
2 4.0811 2.33975 3.58701 65 0 
2 3.99185 3.0052 4.17468 66 0 
2 1.00438 -0.17855 4.89885 67 0 
2 1.41558 0.323984 4.48578 68 0 
2 0.415265 1.11437 4.49205 69 0 
2 1.06656 1.65965 4.58865 70 0 
2 1.9333 0.951072 4.26548 71 0 
2 1.66561 2.22315 4.55744 72 0 
2 2.07567 2.87842 4.60779 73 0 
2 5.05202 0.837098 4.75366 74 0 
2 1.29062 3.2315 0.861205 75 0 
2 1.04976 3.85607 0.392174 76 0 
2 2.62945 5.5052 0.675357 77 0 
2 3.24698 5.00601 0.343025 78 0 
2 1.62444 2.65816 1.4683 79 0 
2 2.9414 2.65524 0.854657 80 0 
2 0.281542 4.22095 1.39132 81 0 
2 0.320854 4.87027 0.880965 82 0 
2 0.601757 2.86896 2.16686 83 0 
2 0.354335 3.56737 1.8179 84 0 
2 1.22808 5.13762 2.81191 85 0 
2 0.805251 4.76856 3.45035 86 0 
2 1.56078 3.96068 3.20773 87 0 
2 2.35301 3.94317 3.42543 88 0 
2 0.209198 4.48757 3.87245 89 0 
2 3.1124 4.17599 3.50755 90 0 
2 3.85345 4.46616 3.7083 91 0 
2 4.67731 4.46511 3.89602 92 0 
2 3.80369 3.78105 4.66702 93 0 
2 3.61299 4.46248 5.18638 94 0 
2 0.928381 4.5659 5.3523 95 0 
ITEM: TIMESTEP
30007
ITEM: NUMBER OF ATOMS
95
ITEM: BOX BOUNDS pp pp pp
0 5.31329
0 5.31329
0 5.31329
ITEM: ATOMS type xu yu zu id mol 
1 7.59515 -3.5281 2.55647 1 1 
1 7.56217 -3.74476 3.37727 2 1 
1 7.44936 -3.98594 4.19623 3 1 
1 7.07314 -4.66592 4.33951 4 1 
1 6.63022 -5.2987 4.68155 5 1 
1 6.03571 -5.761 5.09577 6 1 
1 6.29203 -6.46487 5.37074 7 1 
1 6.41311 -7.13296 5.92545 8 1 
1 6.76047 -7.67477 6.37736 9 1 
1 6.9954 -8.11368 7.09023 10 1 
1 -6.05411 1.08398 -2.40667 11 2 
1 -6.13761 1.15615 -3.14131 12 2 
1 -5.8184 0.832937 -3.92505 13 2 
1 -6.0226 0.861009 -4.79707 14 2 
1 -5.64395 0.737262 -5.55517 15 2 
1 -5.17776 0.931657 -6.17727 16 2 
1 -4.48929 1.34008 -6.16545 17 2 
1 -3.98251 1.91593 -6.0905 18 2 
1 -3.31412 2.46037 -6.07895 19 2 
1 -3.02346 3.23609 -5.96699 20 2 
1 20.005 7.4044 3.28922 21 3 
1 20.0901 7.99515 3.98316 22 3 
1 19.9893 8.6882 4.50823 23 3 
1 19.7266 9.40367 4.89318 24 3 
1 19.4164 9.97847 5.52959 25 3 
1 18.9347 10.563 5.79274 26 3 
1 18.2714 10.9854 6.17157 27 3 
1 17.6749 11.4109 6.73533 28 3 
1 16.8902 10.9828 6.79168 29 3 
1 16.1842 10.5151 6.96005 30 3 
1 -14.1896 0.761857 2.31527 31 4 
1 -14.506 0.0225293 2.57333 32 4 
1 -14.9619 -0.425027 3.09881 33 4 
1 -15.344 -0.851114 3.78447 34 4 
1 -16.1845 -0.756868 3.84751 35 4 
1 -17.0345 -0.706913 3.8968 36 4 
1 -17.8122 -0.876242 3.54244 37 4 
1 -18.5132 -1.34289 3.43046 38 4 
1 -19.3495 -1.56772 3.39432 39 4 
1 -20.0741 -1.27459 3.0202 40 4 
1 8.54598 18.9133 -4.41419 41 5 
1 7.93202 18.2761 -4.54027 42 5 
1 7.22905 17.6677 -4.6853 43 5 
1 6.62377 17.1797 -4.65501 44 5 
1 6.10571 16.5036 -4.85484 45 5 
1 5.70032 15.9051 -4.57079 46 5 
1 5.48928 15.1604 -4.20914 47 5 
1 5.573 14.5796 -3.62073 48 5 
1 5.70963 13.7816 -3.47516 49 5 
1 5.98549 13.2182 -2.98646 50 5 
2 0.570036 0.241126 0.513814 51 0 
2 1.0599 0.844169 0.424172 52 0 
2 4.67363 0.804065 0.2232 53 0 
2 1.67386 1.44099 0.553481 54 0 
2 2.02058 0.553639 1.11231 55 0 
2 2.32087 2.03617 0.689593 56 0 
2 0.61322 0.227951 1.5296 57 0 
2 1.34097 0.575998 1.39272 58 0 
2 4.6614 0.897792 1.0207 59 0 
2 1.64729 0.313601 2.43674 60 0 
2 4.69466 1.03641 1.73802 61 0 
2 2.25554 1.6004 2.90144 62 0 
2 4.58171 1.13133 2.52905 63 0 
2 2.25728 1.32489 3.72373 64 0 
2 4.0811 2.33975 3.58701 65 0 
2 3.99185 3.0052 4.17468 66 0 
2 1.00438 -0.17855 4.89885 67 0 
2 1.41558 0.323984 4.48578 68 0 
2 0.415265 1.11437 4.49205 69 0 
2 1.06656 1.65965 4.58865 70 0 
2 1.9333 0.951072 4.26548 71 0 
2 1.66561 2.22315 4.55744 72 0 
2 2.07567 2.87842 4.60779 73 0 
2 5.05202 0.837098 4.75366 74 0 
2 1.29062 3.2315 0.861205 75 0 
2 1.04976 3.85607 0.392174 76 0 
2 2.62945 5.5052 0.675357 77 0 
2 3.24698 5.00601 0.343025 78 0 
2 1.62444 2.65816 1.4683 79 0 
2 2.9414 2.65524 0.854657 80 0 
2 0.281542 4.22095 1.39132 81 0 
2 0.320854 4.87027 0.880965 82 0 
2 0.601757 2.86896 2.16686 83 0 
2 0.354335 3.56737 1.8179 84 0 
2 1.22808 5.13762 2.81191 85 0 
2 0.805251 4.76856 3.45035 86 0 
2 1.56078 3.96068 3.20773 87 0 
2 2.35301 3.94317 3.42543 88 0 
2 0.209198 4.48757 3.87245 89 0 
2 3.1124 4.17599 3.50755 90 0 
2 3.85345 4.46616 3.7083 91 0 
2 4.67731 4.46511 3.89602 92 0 
2 3.80369 3.78105 4.66702 93 0 
2 3.61299 4.46248 5.18638 94 0 
2 0.928381 4.5659 5.3523 95 0 
ITEM: TIMESTEP
30008
ITEM: NUMBER OF ATOMS
95
ITEM: BOX BOUNDS pp pp pp
0 5.31329
0 5.31329
0 5.31329
ITEM: ATOMS type xu yu zu id mol 
1 7.6034 -3.53194 2.56163 1 1 
1 7.55691 -3.7187 3.39775 2 1 
1 7.44011 -3.9698 4.19023 3 1 
1 7.08744 -4.67137 4.33882 4 1 
1 6.64796 -5.29362 4.69083 5 1 
1 6.02251 -5.77429 5.08119 6 1 
1 6.2801 -6.4666 5.35152 7 1 
1 6.42112 -7.14085 5.92894 8 1 
1 6.75033 -7.67704 6.37529 9 1 
1 6.98814 -8.09197 7.08076 10 1 
1 -6.04915 1.08026 -2.40042 11 2 
1 -6.15367 1.15346 -3.14745 12 2 
1 -5.81761 0.825293 -3.91976 13 2 
1 -6.01025 0.854797 -4.82646 14 2 
1 -5.62469 0.739321 -5.54922 15 2 
1 -5.15423 0.929992 -6.17179 16 2 
1 -4.49782 1.34215 -6.18613 17 2 
1 -3.97148 1.90312 -6.09826 18 2 
1 -3.31693 2.47841 -6.07344 19 2 
1 -3.00007 3.21239 -5.97326 20 2 
1 19.9979 7.41703 3.29372 21 3 
1 20.104 8.00311 3.99849 22 3 
1 20.0029 8.68931 4.50956 23 3 
1 19.7455 9.38516 4.90231 24 3 
1 19.4085 9.96245 5.52259 25 3 
1 18.9405 10.5608 5.79421 26 3 
1 18.2638 10.9859 6.18129 27 3 
1 17.6894 11.4161 6.72971 28 3 
1 16.879 10.9646 6.8033 29 3 
1 16.1874 10.5056 6.96357 30 3 
1 -14.1955 0.785018 2.31018 31 4 
1 -14.5108 0.0275506 2.57712 32 4 
1 -14.9718 -0.449774 3.11826 33 4 
1 -15.3427 -0.856518 3.76675 34 4 
1 -16.1905 -0.736637 3.8367 35 4 
1 -17.0455 -0.695533 3.8988 36 4 
1 -17.8046 -0.871885 3.54381 37 4 
1 -18.5246 -1.33919 3.42782 38 4 
1 -19.3499 -1.59529 3.39173 39 4 
1 -20.0761 -1.26743 3.02151 40 4 
1 8.53248 18.9026 -4.41945 41 5 
1 7.9308 18.2776 -4.54316 42 5 
1 7.23091 17.6809 -4.67669 43 5 
1 6.61178 17.1835 -4.63822 44 5 
1 6.116 16.5223 -4.83891 45 5 
1 5.69849 15.8941 -4.56003 46 5 
1 5.47217 15.1699 -4.20695 47 5 
1 5.57031 14.5847 -3.62761 48 5 
1 5.70299 13.7744 -3.48574 49 5 
1 5.97456 13.2195 -2.99596 50 5 
2 0.570036 0.241126 0.513814 51 0 
2 1.0599 0.844169 0.424172 52 0 
2 4.67363 0.804065 0.2232 53 0 
2 1.67386 1.44099 0.553481 54 0 
2 2.02058 0.553639 1.11231 55 0 
2 2.32087 2.03617 0.689593 56 0 
2 0.61322 0.227951 1.5296 57 0 
2 1.34097 0.575998 1.39272 58 0 
2 4.6614 0.897792 1.0207 59 0 
2 1.64729 0.313601 2.43674 60 0 
2 4.69466 1.03641 1.73802 61 0 
2 2.25554 1.6004 2.90144 62 0 
2 4.58171 1.13133 2.52905 63 0 
2 2.25728 1.32489 3.72373 64 0 
2 4.0811 2.33975 3.58701 65 0 
2 3.99185 3.0052 4.17468 66 0 
2 1.00438 -0.17855 4.89885 67 0 
2 1.41558 0.323984 4.48578 68 0 
2 0.415265 1.11437 4.49205 69 0 
2 1.06656 1.65965 4.58865 70 0 
2 1.9333 0.951072 4.26548 71 0 
2 1.66561 2.22315 4.55744 72 0 
2 2.07567 2.87842 4.60779 73 0 
2 5.05202 0.837098 4.75366 74 0 
2 1.29062 3.2315 0.861205 75 0 
2 1.04976 3.85607 0.392174 76 0 
2 2.62945 5.5052 0.675357 77 0 
2 3.24698 5.00601 0.343025 78 0 
2 1.62444 2.65816 1.4683 79 0 
2 2.9414 2.65524 0.854657 80 0 
2 0.281542 4.22095 1.39132 81 0 
2 0.320854 4.87027 0.880965 82 0 
2 0.601757 2.86896 2.16686 83 0 
2 0.354335 3.56737 1.8179 84 0 
2 1.22808 5.13762 2.81191 85 0 
2 0.805251 4.76856 3.45035 86 0 
2 1.56078 3.96068 3.20773 87 0 
2 2.35301 3.94317 3.42543 88 0 
2 0.209198 4.48757 3.87245 89 0 
2 3.1124 4.17599 3.50755 90 0 
2 3.85345 4.46616 3.7083 91 0 
2 4.67731 4.46511 3.89602 92 0 
2 3.80369 3.78105 4.66702 93 0 
2 3.61299 4.46248 5.18638 94 0 
2 0.928381 4.5659 5.3523 95 0 
ITEM: TIMESTEP
30009
ITEM: NUMBER OF ATOMS
95
ITEM: BOX BOUNDS pp pp pp
0 5.31329
0 5.31329
0 5.31329
ITEM: ATOMS type xu yu zu id mol 
1 7.61169 -3.53582 2.56717 1 1 
1 7.55185 -3.69205 3.41758 2 1 
1 7.43164 -3.95232 4.1834 3 1 
1 7.10107 -4.67832 4.33915 4 1 
1 6.66397 -5.28913 4.70074 5 1 
1 6.0104 -5.78476 5.06472 6 1 
1 6.26854 -6.47249 5.33523 7 1 
1 6.42777 -7.14477 5.92856 8 1 
1 6.74139 -7.68162 6.3757 9 1 
1 6.98094 -8.07033 7.07108 10 1 
1 -6.04392 1.07641 -2.39001 11 2 
1 -6.16859 1.14964 -3.15945 12 2 
1 -5.81957 0.819306 -3.91604 13 2 
1 -5.99678 0.848013 -4.85153 14 2 
1 -5.60666 0.74103 -5.54289 15 2 
1 -5.13199 0.926977 -6.16728 16 2 
1 -4.50605 1.34377 -6.20755 17 2 
1 -3.95702 1.89305 -6.10586 18 2 
1 -3.32171 2.49433 -6.06804 19 2 
1 -2.97563 3.19039 -5.97933 20 2 
1 19.9912 7.43165 3.3008 21 3 
1 20.1173 8.00955 4.01151 22 3 
1 20.0166 8.68969 4.51018 23 3 